101
	Energy:     639.9023632
C          0.37829        0.02714       -0.03118
C          3.10065        3.32409        1.09377
C         -2.44999       -1.03968        3.21575
C          3.13746       -3.29673       -1.01467
C         -2.46423        1.01508       -3.28461
C          2.06837        2.96737        1.95971
C         -1.35992       -1.87271        2.95336
C          2.14566       -2.93487       -1.92876
C         -1.38375        1.86568       -3.03435
C          1.18860        1.94074        1.60218
C         -0.45740       -1.55312        1.92857
C          1.26155       -1.88938       -1.62708
C         -0.47129        1.56844       -2.01054
C          1.31429        1.24962        0.37909
C         -0.58799       -0.37233        1.17450
C          1.35182       -1.17019       -0.41857
C         -0.58342        0.39399       -1.24524
C          2.38866        1.63253       -0.46618
C         -1.67766        0.47647        1.49843
C          2.40798       -1.52390        0.45753
C         -1.65645       -0.47813       -1.56467
C          3.27846        2.65456       -0.11520
C         -2.59375        0.15155        2.50155
C          3.28807       -2.56987        0.16730
C         -2.58349       -0.17436       -2.56391
H          1.94621        3.46481        2.91907
H         -1.20314       -2.79494        3.50991
H          2.03006       -3.45949       -2.87526
H         -1.24420        2.78594       -3.59850
H          0.42449        1.68618        2.33043
H          0.32997       -2.27470        1.73352
H          0.51039       -1.65705       -2.37698
H          0.30674        2.30243       -1.82316
H          2.55246        1.11132       -1.40976
H         -1.82603        1.41018        0.95453
H          2.55302       -0.97842        1.39017
H         -1.78824       -1.41095       -1.01492
H          4.10585        2.89966       -0.77638
H         -3.41472        0.83392        2.71499
H          4.09020       -2.80380        0.86494
H         -3.39539       -0.87090       -2.76710
N          4.06525        4.32521        1.51528
N          3.70148        5.59079        1.40691
C          4.58578        6.68219        1.86158
C          3.97331        7.91335        2.16614
C          4.73393        9.01718        2.55956
C          6.11640        8.90590        2.66368
C          6.73743        7.69699        2.35913
C          5.98154        6.59410        1.94267
H          2.89306        8.03128        2.08505
H          4.24563        9.96390        2.77798
H          6.71112        9.76202        2.97260
H          7.81919        7.61110        2.43720
H          6.53056        5.69250        1.68725
N         -3.43039       -1.33158        4.26352
N         -3.93177       -2.55461        4.34024
C         -4.95069       -2.85969        5.35158
C         -5.96520       -3.76294        4.99303
C         -6.93640       -4.13793        5.92194
C         -6.90269       -3.61485        7.21237
C         -5.88790       -2.73208        7.58122
C         -4.90051       -2.36730        6.66147
H         -5.99709       -4.19197        3.99256
H         -7.71475       -4.84264        5.63954
H         -7.66281       -3.90202        7.93483
H         -5.86260       -2.32924        8.59113
H         -4.11262       -1.69604        6.99489
N          4.09178       -4.37122       -1.28937
N          3.61478       -5.55618       -1.63989
C          4.51665       -6.69803       -1.89611
C          3.95531       -7.98598       -1.79610
C          4.71626       -9.12575       -2.06456
C          6.05247       -8.99758       -2.42793
C          6.61954       -7.73048       -2.54215
C          5.85376       -6.58360       -2.29832
H          2.90883       -8.11577       -1.52097
H          4.26198      -10.11106       -1.99393
H          6.64951       -9.88305       -2.63124
H          7.66382       -7.63068       -2.83053
H          6.34619       -5.62602       -2.44055
N         -3.45986        1.28718       -4.32374
N         -3.97869        2.50233       -4.40471
C         -5.01316        2.79013       -5.40642
C         -6.01899        3.70437       -5.05048
C         -7.00329        4.06645       -5.97080
C         -6.99284        3.51837       -7.25111
C         -5.98835        2.62352       -7.61819
C         -4.98739        2.27218       -6.70755
H         -6.03379        4.15336       -4.05818
H         -7.77339        4.78072       -5.68990
H         -7.76277        3.79556       -7.96701
H         -5.98102        2.20075       -8.62032
H         -4.20825        1.59182       -7.04242
O          5.18441        3.93523        1.99633
O          2.54191        5.88917        0.93385
O          2.34463       -5.75241       -1.71439
O          5.33917       -4.14063       -1.10635
O         -3.85311        0.31857       -5.06892
O         -3.64603        3.43132       -3.58072
O         -3.59764       -3.47339        3.50674
O         -3.82609       -0.37508        5.02165
