122
	Energy:    1016.6198925
C          3.95816        4.90796        1.59748
C         -3.69231       -1.47182        4.30667
C          3.98499       -4.64551       -1.77380
C         -3.84663        1.95858       -4.66526
C          2.79598        4.56412        2.30193
C         -2.67801       -2.33409        3.86119
C          2.84142       -4.31998       -2.52297
C         -2.83391        2.82093       -4.21441
C          1.90954        3.47972        1.89009
C         -1.70897       -1.97203        2.83707
C          1.94738       -3.18568       -2.21115
C         -1.81924        2.43743       -3.22267
C          2.12174        2.67539        0.73755
C         -1.69111       -0.71387        2.19135
C          2.13773       -2.29704       -1.12084
C         -1.74855        1.15723       -2.61582
C          3.28286        3.05408        0.02420
C         -2.69607        0.15746        2.65975
C          3.28083       -2.64176       -0.36638
C         -2.76597        0.29604       -3.07764
C          4.17174        4.11512        0.44991
C         -3.65053       -0.20976        3.67034
C          4.16253       -3.75106       -0.68824
C         -3.76292        0.68341       -4.05238
H          2.59032        5.12260        3.21233
H         -2.62924       -3.32393        4.30800
H          2.61477       -4.94532       -3.38392
H         -2.81448        3.82763       -4.62540
H          1.05703        3.29657        2.53827
H         -0.98797       -2.73920        2.56826
H          1.09493       -3.05806       -2.87340
H         -1.10901        3.21285       -2.94653
H          3.56128        2.53022       -0.88479
H         -2.79873        1.15448        2.24003
H          3.54601       -2.07427        0.52102
H         -2.85421       -0.71050       -2.67734
H          5.07063        4.32506       -0.12364
H         -4.41148        0.51784        3.94185
H          5.01443       -3.92388       -0.03398
H         -4.52557       -0.04753       -4.31243
N          4.98016        5.88118        2.04124
N          4.70894        7.25125        2.55438
C          5.71369        8.28111        2.88502
C          5.31544        9.59744        3.25860
C          6.22477       10.62026        3.60669
C          7.58659       10.36691        3.61286
C          8.02623        9.09435        3.25549
C          7.10250        8.08403        2.89032
H          4.25450        9.82622        3.27453
H          5.84297       11.60142        3.87128
H          8.29516       11.13993        3.88852
H          9.08450        8.86135        3.25517
H          7.49797        7.11611        2.60629
N         -4.70215       -1.79011        5.33689
N         -5.19259       -3.12468        5.72381
C         -6.19972       -3.36363        6.75619
C         -7.25819       -4.28460        6.56176
C         -8.22343       -4.55606        7.54733
C         -8.15521       -3.91511        8.77823
C         -7.12408       -3.00448        9.01036
C         -6.16261       -2.73865        8.01240
H         -7.33196       -4.77400        5.59485
H         -9.01918       -5.25848        7.32709
H         -8.89970       -4.11245        9.54063
H         -7.05806       -2.48155        9.95707
H         -5.36542       -2.02342        8.19393
N          4.94942       -5.75048       -2.04545
N          4.71257       -7.02347       -2.78516
C          5.70877       -8.08690       -3.01032
C          5.33653       -9.46186       -3.01215
C          6.25165      -10.50816       -3.26138
C          7.57919      -10.22413       -3.52793
C          7.98911       -8.88749       -3.54190
C          7.06062       -7.84638       -3.29056
H          4.30544       -9.71028       -2.79085
H          5.89861      -11.53642       -3.23439
H          8.29074      -11.02170       -3.71663
H          9.02317       -8.63962       -3.73973
H          7.39990       -6.81292       -3.31318
N         -4.89120        2.27127       -5.67402
N         -5.39680        3.60194       -6.09371
C         -6.43310        3.81809       -7.11261
C         -7.47566        4.76262       -6.93168
C         -8.46024        5.01759       -7.90739
C         -8.43008        4.33631       -9.11830
C         -7.41808        3.40271       -9.33835
C         -6.43769        3.15322       -8.35051
H         -7.52365        5.29005       -5.98316
H         -9.24078        5.74052       -7.69769
H         -9.18669        4.52164       -9.87259
H         -7.38011        2.84956      -10.27015
H         -5.65620        2.42154       -8.53115
O          6.11396        5.23229        2.60941
O          3.41475        7.75815        2.26164
O          3.36351       -7.40792       -2.96930
O          6.19542       -5.67866       -1.35440
O         -5.59561        1.15596       -6.21944
O         -5.22145        4.66832       -5.17832
O         -5.04992       -4.16263        4.76936
O         -5.40869       -0.68499        5.90016
C          1.17312       -1.04650       -0.71160
C          0.22458       -0.51144       -1.87770
C         -0.71746        0.70255       -1.45203
H          0.84067       -0.20276       -2.73269
H         -0.40277       -1.33854       -2.23370
C         -1.55460        0.20740       -0.21766
C         -0.70204       -0.28591        1.00616
H         -2.21543        1.02943        0.08751
H         -2.21972       -0.61367       -0.51550
C          0.23212       -1.45264        0.48853
H          0.85152       -1.81120        1.32189
H         -0.38733       -2.30524        0.17790
C          2.02168        0.20309       -0.22324
C          0.22881        1.86452       -0.92905
C          1.17061        1.44550        0.27049
H          0.84687        2.22539       -1.76203
H         -0.38503        2.71801       -0.61000
C          0.23339        0.91167        1.43015
H          2.68212       -0.08995        0.60223
H          2.68007        0.50144       -1.04867
H          0.85043        0.60054        2.28448
H         -0.39343        1.73738        1.79048
